<?xml version="1.0" encoding="UTF-8"?>

<!-- generated on 2025-04-01 21:21:04 by Eclipse SUMO GUI Version 1.22.0
<sumoConfiguration xmlns:xsi="http://www.w3.org/2001/XMLSchema-instance" xsi:noNamespaceSchemaLocation="http://sumo.dlr.de/xsd/sumoConfiguration.xsd">

    <input>
        <net-file value="my_sumo_net.net.xml"/>
        <route-files value="routes.rou.xml"/>
    </input>

    <output>
        <tripinfo-output value="tripinfo.xml"/>
    </output>

    <time>
        <begin value="0"/>
        <end value="1000"/>
    </time>

    <traci_server>
        <remote-port value="56136"/>
    </traci_server>

</sumoConfiguration>
-->

<tripinfos xmlns:xsi="http://www.w3.org/2001/XMLSchema-instance" xsi:noNamespaceSchemaLocation="http://sumo.dlr.de/xsd/tripinfo_file.xsd">
    <tripinfo id="0" depart="0.00" departLane="47442743#2_0" departPos="5.10" departSpeed="0.00" departDelay="0.00" arrival="40.00" arrivalLane="-197551632#1_0" arrivalPos="0.20" arrivalSpeed="6.25" duration="40.00" routeLength="573.47" waitingTime="0.00" waitingCount="0" stopTime="0.00" timeLoss="12.74" rerouteNo="0" devices="tripinfo_0" vType="DEFAULT_VEHTYPE" speedFactor="1.06" vaporized=""/>
    <tripinfo id="2" depart="18.00" departLane="490917268#1_0" departPos="5.10" departSpeed="0.00" departDelay="0.00" arrival="64.00" arrivalLane="47442750#2_1" arrivalPos="41.83" arrivalSpeed="22.19" duration="46.00" routeLength="789.49" waitingTime="0.00" waitingCount="0" stopTime="0.00" timeLoss="10.07" rerouteNo="0" devices="tripinfo_2" vType="DEFAULT_VEHTYPE" speedFactor="1.01" vaporized=""/>
    <tripinfo id="2.1" depart="21.00" departLane="490917268#1_0" departPos="5.10" departSpeed="0.00" departDelay="3.00" arrival="66.00" arrivalLane="47442750#2_1" arrivalPos="41.83" arrivalSpeed="23.66" duration="45.00" routeLength="789.49" waitingTime="0.00" waitingCount="0" stopTime="0.00" timeLoss="10.95" rerouteNo="0" devices="tripinfo_2.1" vType="DEFAULT_VEHTYPE" speedFactor="1.08" vaporized=""/>
    <tripinfo id="3" depart="27.00" departLane="491337032#2_0" departPos="5.10" departSpeed="0.00" departDelay="0.00" arrival="66.00" arrivalLane="-491342453_0" arrivalPos="0.20" arrivalSpeed="3.07" duration="39.00" routeLength="448.73" waitingTime="0.00" waitingCount="0" stopTime="0.00" timeLoss="12.20" rerouteNo="0" devices="tripinfo_3" vType="DEFAULT_VEHTYPE" speedFactor="0.89" vaporized=""/>
    <tripinfo id="2.2" depart="24.00" departLane="490917268#1_0" departPos="5.10" departSpeed="0.00" departDelay="6.00" arrival="69.00" arrivalLane="47442750#2_1" arrivalPos="41.83" arrivalSpeed="22.76" duration="45.00" routeLength="789.49" waitingTime="0.00" waitingCount="0" stopTime="0.00" timeLoss="9.82" rerouteNo="0" devices="tripinfo_2.2" vType="DEFAULT_VEHTYPE" speedFactor="1.03" vaporized=""/>
    <tripinfo id="3.1" depart="28.00" departLane="491337032#2_0" departPos="5.10" departSpeed="0.00" departDelay="1.00" arrival="70.00" arrivalLane="-491342453_0" arrivalPos="0.20" arrivalSpeed="2.93" duration="42.00" routeLength="448.73" waitingTime="1.00" waitingCount="1" stopTime="0.00" timeLoss="15.98" rerouteNo="0" devices="tripinfo_3.1" vType="DEFAULT_VEHTYPE" speedFactor="0.94" vaporized=""/>
    <tripinfo id="3.2" depart="30.00" departLane="491337032#2_0" departPos="5.10" departSpeed="0.00" departDelay="3.00" arrival="73.00" arrivalLane="-491342453_0" arrivalPos="0.20" arrivalSpeed="3.00" duration="43.00" routeLength="448.73" waitingTime="0.00" waitingCount="0" stopTime="0.00" timeLoss="15.44" rerouteNo="0" devices="tripinfo_3.2" vType="DEFAULT_VEHTYPE" speedFactor="0.86" vaporized=""/>
    <tripinfo id="5" depart="45.00" departLane="197551632#0_0" departPos="5.10" departSpeed="0.00" departDelay="0.00" arrival="76.00" arrivalLane="415697113#0_0" arrivalPos="0.20" arrivalSpeed="4.17" duration="31.00" routeLength="311.25" waitingTime="0.00" waitingCount="0" stopTime="0.00" timeLoss="10.55" rerouteNo="0" devices="tripinfo_5" vType="DEFAULT_VEHTYPE" speedFactor="0.94" vaporized=""/>
    <tripinfo id="3.3" depart="33.00" departLane="491337032#2_0" departPos="5.10" departSpeed="0.00" departDelay="6.00" arrival="77.00" arrivalLane="-491342453_0" arrivalPos="0.20" arrivalSpeed="3.11" duration="44.00" routeLength="448.73" waitingTime="1.00" waitingCount="1" stopTime="0.00" timeLoss="21.49" rerouteNo="0" devices="tripinfo_3.3" vType="DEFAULT_VEHTYPE" speedFactor="1.09" vaporized=""/>
    <tripinfo id="5.1" depart="48.00" departLane="197551632#0_0" departPos="5.10" departSpeed="0.00" departDelay="3.00" arrival="79.00" arrivalLane="415697113#0_0" arrivalPos="0.20" arrivalSpeed="3.89" duration="31.00" routeLength="311.25" waitingTime="0.00" waitingCount="0" stopTime="0.00" timeLoss="10.27" rerouteNo="0" devices="tripinfo_5.1" vType="DEFAULT_VEHTYPE" speedFactor="0.94" vaporized=""/>
    <tripinfo id="2.3" depart="27.00" departLane="490917268#1_0" departPos="5.10" departSpeed="0.00" departDelay="9.00" arrival="80.00" arrivalLane="47442750#2_1" arrivalPos="41.83" arrivalSpeed="18.14" duration="53.00" routeLength="789.49" waitingTime="0.00" waitingCount="0" stopTime="0.00" timeLoss="9.22" rerouteNo="0" devices="tripinfo_2.3" vType="DEFAULT_VEHTYPE" speedFactor="0.83" vaporized=""/>
    <tripinfo id="3.4" depart="35.00" departLane="491337032#2_0" departPos="5.10" departSpeed="0.00" departDelay="8.00" arrival="80.00" arrivalLane="-491342453_0" arrivalPos="0.20" arrivalSpeed="3.62" duration="45.00" routeLength="448.73" waitingTime="0.00" waitingCount="0" stopTime="0.00" timeLoss="21.52" rerouteNo="0" devices="tripinfo_3.4" vType="DEFAULT_VEHTYPE" speedFactor="1.03" vaporized=""/>
    <tripinfo id="2.4" depart="30.00" departLane="490917268#1_0" departPos="5.10" departSpeed="0.00" departDelay="12.00" arrival="82.00" arrivalLane="47442750#2_1" arrivalPos="41.83" arrivalSpeed="21.43" duration="52.00" routeLength="789.49" waitingTime="0.00" waitingCount="0" stopTime="0.00" timeLoss="16.15" rerouteNo="0" devices="tripinfo_2.4" vType="DEFAULT_VEHTYPE" speedFactor="1.05" vaporized=""/>
    <tripinfo id="5.2" depart="51.00" departLane="197551632#0_0" departPos="5.10" departSpeed="0.00" departDelay="6.00" arrival="82.00" arrivalLane="415697113#0_0" arrivalPos="0.20" arrivalSpeed="4.52" duration="31.00" routeLength="311.25" waitingTime="0.00" waitingCount="0" stopTime="0.00" timeLoss="14.40" rerouteNo="0" devices="tripinfo_5.2" vType="DEFAULT_VEHTYPE" speedFactor="1.16" vaporized=""/>
    <tripinfo id="1" depart="9.00" departLane="25439947#0_0" departPos="0.20" departSpeed="0.00" departDelay="0.00" arrival="117.00" arrivalLane="491337020#2_0" arrivalPos="421.62" arrivalSpeed="20.64" duration="108.00" routeLength="853.47" waitingTime="39.00" waitingCount="2" stopTime="0.00" timeLoss="63.25" rerouteNo="0" devices="tripinfo_1" vType="DEFAULT_VEHTYPE" speedFactor="0.94" vaporized=""/>
    <tripinfo id="4" depart="36.00" departLane="415670710#3_0" departPos="0.20" departSpeed="0.00" departDelay="0.00" arrival="172.00" arrivalLane="-29182100#0_1" arrivalPos="0.20" arrivalSpeed="7.31" duration="136.00" routeLength="1485.05" waitingTime="43.00" waitingCount="1" stopTime="0.00" timeLoss="68.05" rerouteNo="0" devices="tripinfo_4" vType="DEFAULT_VEHTYPE" speedFactor="1.05" vaporized=""/>
    <tripinfo id="4.1" depart="38.00" departLane="415670710#3_0" departPos="0.20" departSpeed="0.00" departDelay="2.00" arrival="175.00" arrivalLane="-29182100#0_1" arrivalPos="0.20" arrivalSpeed="9.24" duration="137.00" routeLength="1485.05" waitingTime="43.00" waitingCount="2" stopTime="0.00" timeLoss="73.45" rerouteNo="0" devices="tripinfo_4.1" vType="DEFAULT_VEHTYPE" speedFactor="1.12" vaporized=""/>
    <tripinfo id="9" depart="81.00" departLane="491337027#0_0" departPos="5.10" departSpeed="0.00" departDelay="0.00" arrival="185.00" arrivalLane="-170356124_0" arrivalPos="590.44" arrivalSpeed="16.07" duration="104.00" routeLength="1710.09" waitingTime="0.00" waitingCount="0" stopTime="0.00" timeLoss="20.68" rerouteNo="0" devices="tripinfo_9" vType="DEFAULT_VEHTYPE" speedFactor="1.18" vaporized=""/>
    <tripinfo id="7" depart="63.00" departLane="47442743#3_0" departPos="5.10" departSpeed="0.00" departDelay="0.00" arrival="186.00" arrivalLane="47442733_0" arrivalPos="0.20" arrivalSpeed="8.09" duration="123.00" routeLength="789.31" waitingTime="53.00" waitingCount="2" stopTime="0.00" timeLoss="79.69" rerouteNo="0" devices="tripinfo_7" vType="DEFAULT_VEHTYPE" speedFactor="0.95" vaporized=""/>
    <tripinfo id="7.1" depart="66.00" departLane="47442743#3_0" departPos="5.10" departSpeed="0.00" departDelay="3.00" arrival="188.00" arrivalLane="47442733_0" arrivalPos="0.20" arrivalSpeed="10.19" duration="122.00" routeLength="789.31" waitingTime="49.00" waitingCount="2" stopTime="0.00" timeLoss="85.23" rerouteNo="0" devices="tripinfo_7.1" vType="DEFAULT_VEHTYPE" speedFactor="1.13" vaporized=""/>
    <tripinfo id="7.2" depart="69.00" departLane="47442743#3_0" departPos="5.10" departSpeed="0.00" departDelay="6.00" arrival="190.00" arrivalLane="47442733_0" arrivalPos="0.20" arrivalSpeed="8.47" duration="121.00" routeLength="789.31" waitingTime="49.00" waitingCount="2" stopTime="0.00" timeLoss="77.01" rerouteNo="0" devices="tripinfo_7.2" vType="DEFAULT_VEHTYPE" speedFactor="0.93" vaporized=""/>
    <tripinfo id="7.3" depart="72.00" departLane="47442743#3_0" departPos="5.10" departSpeed="0.00" departDelay="9.00" arrival="192.00" arrivalLane="47442733_0" arrivalPos="0.20" arrivalSpeed="9.88" duration="120.00" routeLength="789.31" waitingTime="49.00" waitingCount="2" stopTime="0.00" timeLoss="84.71" rerouteNo="0" devices="tripinfo_7.3" vType="DEFAULT_VEHTYPE" speedFactor="1.18" vaporized=""/>
    <tripinfo id="9.1" depart="84.00" departLane="491337027#0_0" departPos="5.10" departSpeed="0.00" departDelay="3.00" arrival="193.00" arrivalLane="-170356124_0" arrivalPos="590.44" arrivalSpeed="14.44" duration="109.00" routeLength="1710.09" waitingTime="0.00" waitingCount="0" stopTime="0.00" timeLoss="20.20" rerouteNo="0" devices="tripinfo_9.1" vType="DEFAULT_VEHTYPE" speedFactor="1.10" vaporized=""/>
    <tripinfo id="7.4" depart="75.00" departLane="47442743#3_0" departPos="5.10" departSpeed="0.00" departDelay="12.00" arrival="194.00" arrivalLane="47442733_0" arrivalPos="0.20" arrivalSpeed="10.58" duration="119.00" routeLength="789.31" waitingTime="48.00" waitingCount="2" stopTime="0.00" timeLoss="82.55" rerouteNo="0" devices="tripinfo_7.4" vType="DEFAULT_VEHTYPE" speedFactor="1.15" vaporized=""/>
    <tripinfo id="9.2" depart="87.00" departLane="491337027#0_0" departPos="5.10" departSpeed="0.00" departDelay="6.00" arrival="215.00" arrivalLane="-170356124_0" arrivalPos="590.44" arrivalSpeed="11.70" duration="128.00" routeLength="1710.09" waitingTime="0.00" waitingCount="0" stopTime="0.00" timeLoss="18.46" rerouteNo="0" devices="tripinfo_9.2" vType="DEFAULT_VEHTYPE" speedFactor="0.90" vaporized=""/>
    <tripinfo id="4.2" depart="42.00" departLane="415670710#3_0" departPos="0.20" departSpeed="0.00" departDelay="6.00" arrival="262.00" arrivalLane="-29182100#0_1" arrivalPos="0.20" arrivalSpeed="7.60" duration="220.00" routeLength="1485.05" waitingTime="122.00" waitingCount="2" stopTime="0.00" timeLoss="149.19" rerouteNo="0" devices="tripinfo_4.2" vType="DEFAULT_VEHTYPE" speedFactor="0.99" vaporized=""/>
    <tripinfo id="4.3" depart="45.00" departLane="415670710#3_0" departPos="0.20" departSpeed="0.00" departDelay="9.00" arrival="264.00" arrivalLane="-29182100#0_1" arrivalPos="0.20" arrivalSpeed="8.03" duration="219.00" routeLength="1485.05" waitingTime="115.00" waitingCount="3" stopTime="0.00" timeLoss="142.70" rerouteNo="0" devices="tripinfo_4.3" vType="DEFAULT_VEHTYPE" speedFactor="0.93" vaporized=""/>
    <tripinfo id="9.3" depart="90.00" departLane="491337027#0_0" departPos="5.10" departSpeed="0.00" departDelay="9.00" arrival="273.00" arrivalLane="-170356124_0" arrivalPos="590.44" arrivalSpeed="13.41" duration="183.00" routeLength="1710.09" waitingTime="57.00" waitingCount="2" stopTime="0.00" timeLoss="86.64" rerouteNo="0" devices="tripinfo_9.3" vType="DEFAULT_VEHTYPE" speedFactor="1.03" vaporized=""/>
    <tripinfo id="9.4" depart="93.00" departLane="491337027#0_0" departPos="5.10" departSpeed="0.00" departDelay="12.00" arrival="277.00" arrivalLane="-170356124_0" arrivalPos="590.44" arrivalSpeed="12.30" duration="184.00" routeLength="1710.09" waitingTime="51.00" waitingCount="2" stopTime="0.00" timeLoss="80.86" rerouteNo="0" devices="tripinfo_9.4" vType="DEFAULT_VEHTYPE" speedFactor="0.96" vaporized=""/>
    <tripinfo id="4.4" depart="49.00" departLane="415670710#3_0" departPos="0.20" departSpeed="0.00" departDelay="13.00" arrival="352.00" arrivalLane="-29182100#0_1" arrivalPos="0.20" arrivalSpeed="7.30" duration="303.00" routeLength="1485.05" waitingTime="195.00" waitingCount="4" stopTime="0.00" timeLoss="222.18" rerouteNo="0" devices="tripinfo_4.4" vType="DEFAULT_VEHTYPE" speedFactor="0.88" vaporized=""/>
    <tripinfo id="6" depart="54.00" departLane="-197551632#2_0" departPos="5.10" departSpeed="0.00" departDelay="0.00" arrival="375.00" arrivalLane="197551632#1_0" arrivalPos="0.20" arrivalSpeed="3.43" duration="321.00" routeLength="123.87" waitingTime="299.00" waitingCount="1" stopTime="0.00" timeLoss="311.31" rerouteNo="0" devices="tripinfo_6" vType="DEFAULT_VEHTYPE" speedFactor="0.97" vaporized=""/>
    <tripinfo id="6.1" depart="57.00" departLane="-197551632#2_0" departPos="5.10" departSpeed="0.00" departDelay="3.00" arrival="379.00" arrivalLane="197551632#1_0" arrivalPos="0.20" arrivalSpeed="2.87" duration="322.00" routeLength="123.87" waitingTime="300.00" waitingCount="1" stopTime="0.00" timeLoss="310.56" rerouteNo="0" devices="tripinfo_6.1" vType="DEFAULT_VEHTYPE" speedFactor="0.89" vaporized=""/>
    <tripinfo id="5.3" depart="54.00" departLane="197551632#0_0" departPos="5.10" departSpeed="0.00" departDelay="9.00" arrival="384.00" arrivalLane="415697113#0_0" arrivalPos="0.20" arrivalSpeed="4.00" duration="330.00" routeLength="311.25" waitingTime="301.00" waitingCount="1" stopTime="0.00" timeLoss="312.49" rerouteNo="0" devices="tripinfo_5.3" vType="DEFAULT_VEHTYPE" speedFactor="1.02" vaporized=""/>
    <tripinfo id="6.2" depart="60.00" departLane="-197551632#2_0" departPos="5.10" departSpeed="0.00" departDelay="6.00" arrival="384.00" arrivalLane="197551632#1_0" arrivalPos="0.20" arrivalSpeed="2.70" duration="324.00" routeLength="123.87" waitingTime="298.00" waitingCount="1" stopTime="0.00" timeLoss="312.09" rerouteNo="0" devices="tripinfo_6.2" vType="DEFAULT_VEHTYPE" speedFactor="0.83" vaporized=""/>
    <tripinfo id="5.4" depart="57.00" departLane="197551632#0_0" departPos="5.10" departSpeed="0.00" departDelay="12.00" arrival="387.00" arrivalLane="415697113#0_0" arrivalPos="0.20" arrivalSpeed="4.40" duration="330.00" routeLength="291.76" waitingTime="301.00" waitingCount="1" stopTime="0.00" timeLoss="311.10" rerouteNo="0" devices="tripinfo_5.4" vType="DEFAULT_VEHTYPE" speedFactor="1.01" vaporized=""/>
    <tripinfo id="6.3" depart="63.00" departLane="-197551632#2_0" departPos="5.10" departSpeed="0.00" departDelay="9.00" arrival="389.00" arrivalLane="197551632#1_0" arrivalPos="0.20" arrivalSpeed="3.17" duration="326.00" routeLength="123.87" waitingTime="297.00" waitingCount="1" stopTime="0.00" timeLoss="314.39" rerouteNo="0" devices="tripinfo_6.3" vType="DEFAULT_VEHTYPE" speedFactor="0.87" vaporized=""/>
    <tripinfo id="6.4" depart="66.00" departLane="-197551632#2_0" departPos="5.10" departSpeed="0.00" departDelay="12.00" arrival="394.00" arrivalLane="197551632#1_0" arrivalPos="0.20" arrivalSpeed="2.54" duration="328.00" routeLength="123.87" waitingTime="297.00" waitingCount="2" stopTime="0.00" timeLoss="316.81" rerouteNo="0" devices="tripinfo_6.4" vType="DEFAULT_VEHTYPE" speedFactor="0.92" vaporized=""/>
    <tripinfo id="8" depart="72.00" departLane="197551632#0_0" departPos="5.10" departSpeed="0.00" departDelay="0.00" arrival="425.00" arrivalLane="47442735#4_0" arrivalPos="63.04" arrivalSpeed="22.17" duration="353.00" routeLength="926.68" waitingTime="288.00" waitingCount="1" stopTime="0.00" timeLoss="303.98" rerouteNo="0" devices="tripinfo_8" vType="DEFAULT_VEHTYPE" speedFactor="1.01" vaporized=""/>
    <tripinfo id="8.1" depart="75.00" departLane="197551632#0_0" departPos="5.10" departSpeed="0.00" departDelay="3.00" arrival="426.00" arrivalLane="47442735#4_0" arrivalPos="63.04" arrivalSpeed="23.43" duration="351.00" routeLength="926.68" waitingTime="285.00" waitingCount="1" stopTime="0.00" timeLoss="308.64" rerouteNo="0" devices="tripinfo_8.1" vType="DEFAULT_VEHTYPE" speedFactor="1.17" vaporized=""/>
    <tripinfo id="8.2" depart="78.00" departLane="197551632#0_0" departPos="5.10" departSpeed="0.00" departDelay="6.00" arrival="431.00" arrivalLane="47442735#4_0" arrivalPos="63.04" arrivalSpeed="21.89" duration="353.00" routeLength="926.68" waitingTime="284.00" waitingCount="1" stopTime="0.00" timeLoss="303.53" rerouteNo="0" devices="tripinfo_8.2" vType="DEFAULT_VEHTYPE" speedFactor="0.99" vaporized=""/>
    <tripinfo id="8.3" depart="81.00" departLane="197551632#0_0" departPos="5.10" departSpeed="0.00" departDelay="9.00" arrival="434.00" arrivalLane="47442735#4_0" arrivalPos="63.04" arrivalSpeed="21.60" duration="353.00" routeLength="926.68" waitingTime="282.00" waitingCount="1" stopTime="0.00" timeLoss="303.86" rerouteNo="0" devices="tripinfo_8.3" vType="DEFAULT_VEHTYPE" speedFactor="1.02" vaporized=""/>
    <tripinfo id="8.4" depart="84.00" departLane="197551632#0_0" departPos="5.10" departSpeed="0.00" departDelay="12.00" arrival="438.00" arrivalLane="47442735#4_0" arrivalPos="63.04" arrivalSpeed="20.69" duration="354.00" routeLength="926.68" waitingTime="281.00" waitingCount="1" stopTime="0.00" timeLoss="303.65" rerouteNo="0" devices="tripinfo_8.4" vType="DEFAULT_VEHTYPE" speedFactor="0.97" vaporized=""/>
</tripinfos>
