<?xml version="1.0" encoding="UTF-8"?>

<!-- generated on 2025-04-01 20:50:51 by Eclipse SUMO GUI Version 1.22.0
<sumoConfiguration xmlns:xsi="http://www.w3.org/2001/XMLSchema-instance" xsi:noNamespaceSchemaLocation="http://sumo.dlr.de/xsd/sumoConfiguration.xsd">

    <input>
        <net-file value="my_sumo_net.net.xml"/>
        <route-files value="routes.rou.xml"/>
    </input>

    <output>
        <tripinfo-output value="tripinfo.xml"/>
    </output>

    <time>
        <begin value="0"/>
        <end value="1000"/>
    </time>

    <traci_server>
        <remote-port value="55177"/>
    </traci_server>

</sumoConfiguration>
-->

<tripinfos xmlns:xsi="http://www.w3.org/2001/XMLSchema-instance" xsi:noNamespaceSchemaLocation="http://sumo.dlr.de/xsd/tripinfo_file.xsd">
    <tripinfo id="0" depart="0.00" departLane="47442743#2_0" departPos="5.10" departSpeed="0.00" departDelay="0.00" arrival="40.00" arrivalLane="-197551632#1_0" arrivalPos="0.20" arrivalSpeed="6.25" duration="40.00" routeLength="573.47" waitingTime="0.00" waitingCount="0" stopTime="0.00" timeLoss="12.74" rerouteNo="0" devices="tripinfo_0" vType="DEFAULT_VEHTYPE" speedFactor="1.06" vaporized=""/>
    <tripinfo id="2" depart="18.00" departLane="490917268#1_0" departPos="5.10" departSpeed="0.00" departDelay="0.00" arrival="64.00" arrivalLane="47442750#2_1" arrivalPos="41.83" arrivalSpeed="22.19" duration="46.00" routeLength="789.49" waitingTime="0.00" waitingCount="0" stopTime="0.00" timeLoss="10.07" rerouteNo="0" devices="tripinfo_2" vType="DEFAULT_VEHTYPE" speedFactor="1.01" vaporized=""/>
    <tripinfo id="2.1" depart="21.00" departLane="490917268#1_0" departPos="5.10" departSpeed="0.00" departDelay="3.00" arrival="66.00" arrivalLane="47442750#2_1" arrivalPos="41.83" arrivalSpeed="23.66" duration="45.00" routeLength="789.49" waitingTime="0.00" waitingCount="0" stopTime="0.00" timeLoss="10.95" rerouteNo="0" devices="tripinfo_2.1" vType="DEFAULT_VEHTYPE" speedFactor="1.08" vaporized=""/>
    <tripinfo id="3" depart="27.00" departLane="491337032#2_0" departPos="5.10" departSpeed="0.00" departDelay="0.00" arrival="66.00" arrivalLane="-491342453_0" arrivalPos="0.20" arrivalSpeed="3.07" duration="39.00" routeLength="448.73" waitingTime="0.00" waitingCount="0" stopTime="0.00" timeLoss="12.20" rerouteNo="0" devices="tripinfo_3" vType="DEFAULT_VEHTYPE" speedFactor="0.89" vaporized=""/>
    <tripinfo id="2.2" depart="24.00" departLane="490917268#1_0" departPos="5.10" departSpeed="0.00" departDelay="6.00" arrival="69.00" arrivalLane="47442750#2_1" arrivalPos="41.83" arrivalSpeed="22.76" duration="45.00" routeLength="789.49" waitingTime="0.00" waitingCount="0" stopTime="0.00" timeLoss="9.82" rerouteNo="0" devices="tripinfo_2.2" vType="DEFAULT_VEHTYPE" speedFactor="1.03" vaporized=""/>
    <tripinfo id="3.1" depart="28.00" departLane="491337032#2_0" departPos="5.10" departSpeed="0.00" departDelay="1.00" arrival="70.00" arrivalLane="-491342453_0" arrivalPos="0.20" arrivalSpeed="2.93" duration="42.00" routeLength="448.73" waitingTime="1.00" waitingCount="1" stopTime="0.00" timeLoss="15.98" rerouteNo="0" devices="tripinfo_3.1" vType="DEFAULT_VEHTYPE" speedFactor="0.94" vaporized=""/>
    <tripinfo id="3.2" depart="30.00" departLane="491337032#2_0" departPos="5.10" departSpeed="0.00" departDelay="3.00" arrival="73.00" arrivalLane="-491342453_0" arrivalPos="0.20" arrivalSpeed="3.00" duration="43.00" routeLength="448.73" waitingTime="0.00" waitingCount="0" stopTime="0.00" timeLoss="15.44" rerouteNo="0" devices="tripinfo_3.2" vType="DEFAULT_VEHTYPE" speedFactor="0.86" vaporized=""/>
    <tripinfo id="5" depart="45.00" departLane="197551632#0_0" departPos="5.10" departSpeed="0.00" departDelay="0.00" arrival="76.00" arrivalLane="415697113#0_0" arrivalPos="0.20" arrivalSpeed="4.17" duration="31.00" routeLength="311.25" waitingTime="0.00" waitingCount="0" stopTime="0.00" timeLoss="10.55" rerouteNo="0" devices="tripinfo_5" vType="DEFAULT_VEHTYPE" speedFactor="0.94" vaporized=""/>
    <tripinfo id="3.3" depart="33.00" departLane="491337032#2_0" departPos="5.10" departSpeed="0.00" departDelay="6.00" arrival="77.00" arrivalLane="-491342453_0" arrivalPos="0.20" arrivalSpeed="3.11" duration="44.00" routeLength="448.73" waitingTime="1.00" waitingCount="1" stopTime="0.00" timeLoss="21.49" rerouteNo="0" devices="tripinfo_3.3" vType="DEFAULT_VEHTYPE" speedFactor="1.09" vaporized=""/>
    <tripinfo id="5.1" depart="48.00" departLane="197551632#0_0" departPos="5.10" departSpeed="0.00" departDelay="3.00" arrival="79.00" arrivalLane="415697113#0_0" arrivalPos="0.20" arrivalSpeed="3.89" duration="31.00" routeLength="311.25" waitingTime="0.00" waitingCount="0" stopTime="0.00" timeLoss="10.27" rerouteNo="0" devices="tripinfo_5.1" vType="DEFAULT_VEHTYPE" speedFactor="0.94" vaporized=""/>
    <tripinfo id="2.3" depart="27.00" departLane="490917268#1_0" departPos="5.10" departSpeed="0.00" departDelay="9.00" arrival="80.00" arrivalLane="47442750#2_1" arrivalPos="41.83" arrivalSpeed="18.14" duration="53.00" routeLength="789.49" waitingTime="0.00" waitingCount="0" stopTime="0.00" timeLoss="9.22" rerouteNo="0" devices="tripinfo_2.3" vType="DEFAULT_VEHTYPE" speedFactor="0.83" vaporized=""/>
    <tripinfo id="3.4" depart="35.00" departLane="491337032#2_0" departPos="5.10" departSpeed="0.00" departDelay="8.00" arrival="80.00" arrivalLane="-491342453_0" arrivalPos="0.20" arrivalSpeed="3.62" duration="45.00" routeLength="448.73" waitingTime="0.00" waitingCount="0" stopTime="0.00" timeLoss="21.52" rerouteNo="0" devices="tripinfo_3.4" vType="DEFAULT_VEHTYPE" speedFactor="1.03" vaporized=""/>
    <tripinfo id="2.4" depart="30.00" departLane="490917268#1_0" departPos="5.10" departSpeed="0.00" departDelay="12.00" arrival="82.00" arrivalLane="47442750#2_1" arrivalPos="41.83" arrivalSpeed="21.43" duration="52.00" routeLength="789.49" waitingTime="0.00" waitingCount="0" stopTime="0.00" timeLoss="16.15" rerouteNo="0" devices="tripinfo_2.4" vType="DEFAULT_VEHTYPE" speedFactor="1.05" vaporized=""/>
    <tripinfo id="5.2" depart="51.00" departLane="197551632#0_0" departPos="5.10" departSpeed="0.00" departDelay="6.00" arrival="82.00" arrivalLane="415697113#0_0" arrivalPos="0.20" arrivalSpeed="4.52" duration="31.00" routeLength="311.25" waitingTime="0.00" waitingCount="0" stopTime="0.00" timeLoss="14.40" rerouteNo="0" devices="tripinfo_5.2" vType="DEFAULT_VEHTYPE" speedFactor="1.16" vaporized=""/>
    <tripinfo id="1" depart="9.00" departLane="25439947#0_0" departPos="0.20" departSpeed="0.00" departDelay="0.00" arrival="117.00" arrivalLane="491337020#2_0" arrivalPos="421.62" arrivalSpeed="20.64" duration="108.00" routeLength="853.47" waitingTime="39.00" waitingCount="2" stopTime="0.00" timeLoss="63.25" rerouteNo="0" devices="tripinfo_1" vType="DEFAULT_VEHTYPE" speedFactor="0.94" vaporized=""/>
    <tripinfo id="4" depart="36.00" departLane="415670710#3_0" departPos="0.20" departSpeed="0.00" departDelay="0.00" arrival="171.00" arrivalLane="-29182100#0_1" arrivalPos="0.20" arrivalSpeed="9.19" duration="135.00" routeLength="1485.05" waitingTime="39.00" waitingCount="1" stopTime="0.00" timeLoss="66.31" rerouteNo="0" devices="tripinfo_4" vType="DEFAULT_VEHTYPE" speedFactor="1.05" vaporized=""/>
    <tripinfo id="4.1" depart="38.00" departLane="415670710#3_0" departPos="0.20" departSpeed="0.00" departDelay="2.00" arrival="173.00" arrivalLane="-29182100#0_1" arrivalPos="0.20" arrivalSpeed="9.92" duration="135.00" routeLength="1485.05" waitingTime="39.00" waitingCount="2" stopTime="0.00" timeLoss="71.49" rerouteNo="0" devices="tripinfo_4.1" vType="DEFAULT_VEHTYPE" speedFactor="1.12" vaporized=""/>
    <tripinfo id="4.2" depart="42.00" departLane="415670710#3_0" departPos="0.20" departSpeed="0.00" departDelay="6.00" arrival="176.00" arrivalLane="-29182100#0_1" arrivalPos="0.20" arrivalSpeed="8.47" duration="134.00" routeLength="1485.05" waitingTime="37.00" waitingCount="1" stopTime="0.00" timeLoss="62.70" rerouteNo="0" devices="tripinfo_4.2" vType="DEFAULT_VEHTYPE" speedFactor="0.99" vaporized=""/>
    <tripinfo id="4.3" depart="45.00" departLane="415670710#3_0" departPos="0.20" departSpeed="0.00" departDelay="9.00" arrival="263.00" arrivalLane="-29182100#0_1" arrivalPos="0.20" arrivalSpeed="8.20" duration="218.00" routeLength="1485.05" waitingTime="112.00" waitingCount="4" stopTime="0.00" timeLoss="141.35" rerouteNo="0" devices="tripinfo_4.3" vType="DEFAULT_VEHTYPE" speedFactor="0.93" vaporized=""/>
    <tripinfo id="4.4" depart="49.00" departLane="415670710#3_0" departPos="0.20" departSpeed="0.00" departDelay="13.00" arrival="266.00" arrivalLane="-29182100#0_1" arrivalPos="0.20" arrivalSpeed="7.88" duration="217.00" routeLength="1485.05" waitingTime="106.00" waitingCount="4" stopTime="0.00" timeLoss="136.15" rerouteNo="0" devices="tripinfo_4.4" vType="DEFAULT_VEHTYPE" speedFactor="0.88" vaporized=""/>
    <tripinfo id="9" depart="81.00" departLane="491337027#0_0" departPos="5.10" departSpeed="0.00" departDelay="0.00" arrival="357.00" arrivalLane="-170356124_0" arrivalPos="590.44" arrivalSpeed="15.39" duration="276.00" routeLength="1710.09" waitingTime="145.00" waitingCount="4" stopTime="0.00" timeLoss="192.38" rerouteNo="0" devices="tripinfo_9" vType="DEFAULT_VEHTYPE" speedFactor="1.18" vaporized=""/>
    <tripinfo id="6" depart="54.00" departLane="-197551632#2_0" departPos="5.10" departSpeed="0.00" departDelay="0.00" arrival="375.00" arrivalLane="197551632#1_0" arrivalPos="0.20" arrivalSpeed="3.43" duration="321.00" routeLength="123.87" waitingTime="299.00" waitingCount="1" stopTime="0.00" timeLoss="311.31" rerouteNo="0" devices="tripinfo_6" vType="DEFAULT_VEHTYPE" speedFactor="0.97" vaporized=""/>
    <tripinfo id="6.1" depart="57.00" departLane="-197551632#2_0" departPos="5.10" departSpeed="0.00" departDelay="3.00" arrival="379.00" arrivalLane="197551632#1_0" arrivalPos="0.20" arrivalSpeed="2.87" duration="322.00" routeLength="123.87" waitingTime="300.00" waitingCount="1" stopTime="0.00" timeLoss="310.56" rerouteNo="0" devices="tripinfo_6.1" vType="DEFAULT_VEHTYPE" speedFactor="0.89" vaporized=""/>
    <tripinfo id="5.3" depart="54.00" departLane="197551632#0_0" departPos="5.10" departSpeed="0.00" departDelay="9.00" arrival="384.00" arrivalLane="415697113#0_0" arrivalPos="0.20" arrivalSpeed="4.00" duration="330.00" routeLength="311.25" waitingTime="301.00" waitingCount="1" stopTime="0.00" timeLoss="312.49" rerouteNo="0" devices="tripinfo_5.3" vType="DEFAULT_VEHTYPE" speedFactor="1.02" vaporized=""/>
    <tripinfo id="6.2" depart="60.00" departLane="-197551632#2_0" departPos="5.10" departSpeed="0.00" departDelay="6.00" arrival="384.00" arrivalLane="197551632#1_0" arrivalPos="0.20" arrivalSpeed="2.70" duration="324.00" routeLength="123.87" waitingTime="298.00" waitingCount="1" stopTime="0.00" timeLoss="312.09" rerouteNo="0" devices="tripinfo_6.2" vType="DEFAULT_VEHTYPE" speedFactor="0.83" vaporized=""/>
    <tripinfo id="5.4" depart="57.00" departLane="197551632#0_0" departPos="5.10" departSpeed="0.00" departDelay="12.00" arrival="387.00" arrivalLane="415697113#0_0" arrivalPos="0.20" arrivalSpeed="4.40" duration="330.00" routeLength="291.76" waitingTime="301.00" waitingCount="1" stopTime="0.00" timeLoss="311.10" rerouteNo="0" devices="tripinfo_5.4" vType="DEFAULT_VEHTYPE" speedFactor="1.01" vaporized=""/>
    <tripinfo id="9.1" depart="84.00" departLane="491337027#0_0" departPos="5.10" departSpeed="0.00" departDelay="3.00" arrival="387.00" arrivalLane="-170356124_0" arrivalPos="590.44" arrivalSpeed="15.26" duration="303.00" routeLength="1710.09" waitingTime="169.00" waitingCount="6" stopTime="0.00" timeLoss="213.84" rerouteNo="0" devices="tripinfo_9.1" vType="DEFAULT_VEHTYPE" speedFactor="1.10" vaporized=""/>
    <tripinfo id="6.3" depart="63.00" departLane="-197551632#2_0" departPos="5.10" departSpeed="0.00" departDelay="9.00" arrival="389.00" arrivalLane="197551632#1_0" arrivalPos="0.20" arrivalSpeed="3.17" duration="326.00" routeLength="123.87" waitingTime="297.00" waitingCount="1" stopTime="0.00" timeLoss="314.39" rerouteNo="0" devices="tripinfo_6.3" vType="DEFAULT_VEHTYPE" speedFactor="0.87" vaporized=""/>
    <tripinfo id="6.4" depart="66.00" departLane="-197551632#2_0" departPos="5.10" departSpeed="0.00" departDelay="12.00" arrival="394.00" arrivalLane="197551632#1_0" arrivalPos="0.20" arrivalSpeed="2.54" duration="328.00" routeLength="123.87" waitingTime="297.00" waitingCount="2" stopTime="0.00" timeLoss="316.81" rerouteNo="0" devices="tripinfo_6.4" vType="DEFAULT_VEHTYPE" speedFactor="0.92" vaporized=""/>
    <tripinfo id="7" depart="63.00" departLane="47442743#3_0" departPos="5.10" departSpeed="0.00" departDelay="0.00" arrival="408.00" arrivalLane="47442733_0" arrivalPos="0.20" arrivalSpeed="4.52" duration="345.00" routeLength="789.31" waitingTime="244.00" waitingCount="8" stopTime="0.00" timeLoss="301.64" rerouteNo="0" devices="tripinfo_7" vType="DEFAULT_VEHTYPE" speedFactor="0.95" vaporized=""/>
    <tripinfo id="7.1" depart="66.00" departLane="47442743#3_0" departPos="5.10" departSpeed="0.00" departDelay="3.00" arrival="411.00" arrivalLane="47442733_0" arrivalPos="0.20" arrivalSpeed="8.27" duration="345.00" routeLength="789.31" waitingTime="236.00" waitingCount="8" stopTime="0.00" timeLoss="308.34" rerouteNo="0" devices="tripinfo_7.1" vType="DEFAULT_VEHTYPE" speedFactor="1.13" vaporized=""/>
    <tripinfo id="8" depart="72.00" departLane="197551632#0_0" departPos="5.10" departSpeed="0.00" departDelay="0.00" arrival="425.00" arrivalLane="47442735#4_0" arrivalPos="63.04" arrivalSpeed="22.17" duration="353.00" routeLength="926.68" waitingTime="288.00" waitingCount="1" stopTime="0.00" timeLoss="304.08" rerouteNo="0" devices="tripinfo_8" vType="DEFAULT_VEHTYPE" speedFactor="1.01" vaporized=""/>
    <tripinfo id="8.1" depart="75.00" departLane="197551632#0_0" departPos="5.10" departSpeed="0.00" departDelay="3.00" arrival="426.00" arrivalLane="47442735#4_0" arrivalPos="63.04" arrivalSpeed="23.27" duration="351.00" routeLength="926.68" waitingTime="285.00" waitingCount="1" stopTime="0.00" timeLoss="309.21" rerouteNo="0" devices="tripinfo_8.1" vType="DEFAULT_VEHTYPE" speedFactor="1.17" vaporized=""/>
    <tripinfo id="8.2" depart="78.00" departLane="197551632#0_0" departPos="5.10" departSpeed="0.00" departDelay="6.00" arrival="432.00" arrivalLane="47442735#4_0" arrivalPos="63.04" arrivalSpeed="21.89" duration="354.00" routeLength="926.68" waitingTime="284.00" waitingCount="1" stopTime="0.00" timeLoss="304.16" rerouteNo="0" devices="tripinfo_8.2" vType="DEFAULT_VEHTYPE" speedFactor="0.99" vaporized=""/>
    <tripinfo id="8.3" depart="81.00" departLane="197551632#0_0" departPos="5.10" departSpeed="0.00" departDelay="9.00" arrival="434.00" arrivalLane="47442735#4_0" arrivalPos="63.04" arrivalSpeed="21.60" duration="353.00" routeLength="926.68" waitingTime="282.00" waitingCount="1" stopTime="0.00" timeLoss="304.06" rerouteNo="0" devices="tripinfo_8.3" vType="DEFAULT_VEHTYPE" speedFactor="1.02" vaporized=""/>
    <tripinfo id="8.4" depart="84.00" departLane="197551632#0_0" departPos="5.10" departSpeed="0.00" departDelay="12.00" arrival="438.00" arrivalLane="47442735#4_0" arrivalPos="63.04" arrivalSpeed="20.69" duration="354.00" routeLength="926.68" waitingTime="281.00" waitingCount="1" stopTime="0.00" timeLoss="303.00" rerouteNo="0" devices="tripinfo_8.4" vType="DEFAULT_VEHTYPE" speedFactor="0.97" vaporized=""/>
    <tripinfo id="7.2" depart="69.00" departLane="47442743#3_0" departPos="5.10" departSpeed="0.00" departDelay="6.00" arrival="453.00" arrivalLane="47442733_0" arrivalPos="0.20" arrivalSpeed="7.32" duration="384.00" routeLength="789.31" waitingTime="274.00" waitingCount="9" stopTime="0.00" timeLoss="340.28" rerouteNo="0" devices="tripinfo_7.2" vType="DEFAULT_VEHTYPE" speedFactor="0.93" vaporized=""/>
    <tripinfo id="7.3" depart="72.00" departLane="47442743#3_0" departPos="5.10" departSpeed="0.00" departDelay="9.00" arrival="455.00" arrivalLane="47442733_0" arrivalPos="0.20" arrivalSpeed="9.92" duration="383.00" routeLength="789.31" waitingTime="266.00" waitingCount="9" stopTime="0.00" timeLoss="348.15" rerouteNo="0" devices="tripinfo_7.3" vType="DEFAULT_VEHTYPE" speedFactor="1.18" vaporized=""/>
    <tripinfo id="7.4" depart="75.00" departLane="47442743#3_0" departPos="5.10" departSpeed="0.00" departDelay="12.00" arrival="457.00" arrivalLane="47442733_0" arrivalPos="0.20" arrivalSpeed="10.23" duration="382.00" routeLength="789.31" waitingTime="262.00" waitingCount="9" stopTime="0.00" timeLoss="345.81" rerouteNo="0" devices="tripinfo_7.4" vType="DEFAULT_VEHTYPE" speedFactor="1.15" vaporized=""/>
    <tripinfo id="9.2" depart="87.00" departLane="491337027#0_0" departPos="5.10" departSpeed="0.00" departDelay="6.00" arrival="458.00" arrivalLane="-170356124_0" arrivalPos="590.44" arrivalSpeed="11.97" duration="371.00" routeLength="1710.09" waitingTime="214.00" waitingCount="6" stopTime="0.00" timeLoss="262.03" rerouteNo="0" devices="tripinfo_9.2" vType="DEFAULT_VEHTYPE" speedFactor="0.90" vaporized=""/>
    <tripinfo id="9.3" depart="90.00" departLane="491337027#0_0" departPos="5.10" departSpeed="0.00" departDelay="9.00" arrival="460.00" arrivalLane="-170356124_0" arrivalPos="590.44" arrivalSpeed="14.11" duration="370.00" routeLength="1710.09" waitingTime="213.00" waitingCount="6" stopTime="0.00" timeLoss="273.55" rerouteNo="0" devices="tripinfo_9.3" vType="DEFAULT_VEHTYPE" speedFactor="1.03" vaporized=""/>
    <tripinfo id="9.4" depart="93.00" departLane="491337027#0_0" departPos="5.10" departSpeed="0.00" departDelay="12.00" arrival="546.00" arrivalLane="-170356124_0" arrivalPos="590.44" arrivalSpeed="12.67" duration="453.00" routeLength="1710.09" waitingTime="291.00" waitingCount="8" stopTime="0.00" timeLoss="350.46" rerouteNo="0" devices="tripinfo_9.4" vType="DEFAULT_VEHTYPE" speedFactor="0.96" vaporized=""/>
</tripinfos>
